 Title="Hydrodynamic"
 variables="i","j","b"
 zone t="zone number-           1",i=          74,j=          22
 f=point
           1           1 -0.3586957    
           2           1 -0.3423913    
           3           1 -0.3260870    
           4           1 -0.3097826    
           5           1 -0.2934783    
           6           1 -0.2771739    
           7           1 -0.2608696    
           8           1 -0.2445652    
           9           1 -0.2282609    
          10           1 -0.2119565    
          11           1 -0.1956522    
          12           1 -0.1793478    
          13           1 -0.1630435    
          14           1 -0.1467391    
          15           1 -0.1304348    
          16           1 -0.1141304    
          17           1 -9.7826086E-02
          18           1 -8.1521742E-02
          19           1 -6.5217391E-02
          20           1 -4.8913043E-02
          21           1 -3.2608695E-02
          22           1 -1.6304348E-02
          23           1  0.0000000E+00
          24           1  1.1879604E-02
          25           1  1.7843584E-02
          26           1  2.3836359E-02
          27           1  2.9867165E-02
          28           1  3.5944935E-02
          29           1  4.2078219E-02
          30           1  4.8275124E-02
          31           1  5.4543242E-02
          32           1  6.0889594E-02
          33           1  6.7320570E-02
          34           1  7.3841877E-02
          35           1  8.0458499E-02
          36           1  8.7174654E-02
          37           1  9.3993738E-02
          38           1  0.1009184    
          39           1  0.1079502    
          40           1  0.1150902    
          41           1  0.1223384    
          42           1  0.1296937    
          43           1  0.1371547    
          44           1  0.1447185    
          45           1  0.1523819    
          46           1  0.1601406    
          47           1  0.1679896    
          48           1  0.1759232    
          49           1  0.1839351    
          50           1  0.1920182    
          51           1  0.2001649    
          52           1  0.2083672    
          53           1  0.2166164    
          54           1  0.2249036    
          55           1  0.2332196    
          56           1  0.2415550    
          57           1  0.2499000    
          58           1  0.2550000    
          59           1  0.2550000    
          60           1  0.2550000    
          61           1  0.2550000    
          62           1  0.2550000    
          63           1  0.2550000    
          64           1  0.2550000    
          65           1  0.2550000    
          66           1  0.2550000    
          67           1  0.2550000    
          68           1  0.2550000    
          69           1  0.2550000    
          70           1  0.2550000    
          71           1  0.2550000    
          72           1  0.2550000    
          73           1  0.2550000    
          74           1  0.2550000    
           1           2 -0.3586957    
           2           2 -0.3423913    
           3           2 -0.3260870    
           4           2 -0.3097826    
           5           2 -0.2934783    
           6           2 -0.2771739    
           7           2 -0.2608696    
           8           2 -0.2445652    
           9           2 -0.2282609    
          10           2 -0.2119565    
          11           2 -0.1956522    
          12           2 -0.1793478    
          13           2 -0.1630435    
          14           2 -0.1467391    
          15           2 -0.1304348    
          16           2 -0.1141304    
          17           2 -9.7826086E-02
          18           2 -8.1521742E-02
          19           2 -6.5217391E-02
          20           2 -4.8913043E-02
          21           2 -3.2608695E-02
          22           2 -1.6304348E-02
          23           2  0.0000000E+00
          24           2  9.5916679E-03
          25           2  1.4434724E-02
          26           2  1.9334022E-02
          27           2  2.4307603E-02
          28           2  2.9372906E-02
          29           2  3.4546640E-02
          30           2  3.9844636E-02
          31           2  4.5281719E-02
          32           2  5.0871607E-02
          33           2  5.6626778E-02
          34           2  6.2558383E-02
          35           2  6.8676144E-02
          36           2  7.4988306E-02
          37           2  8.1501514E-02
          38           2  8.8220835E-02
          39           2  9.5149644E-02
          40           2  0.1022896    
          41           2  0.1096408    
          42           2  0.1172015    
          43           2  0.1249683    
          44           2  0.1329361    
          45           2  0.1410984    
          46           2  0.1494468    
          47           2  0.1579716    
          48           2  0.1666617    
          49           2  0.1755046    
          50           2  0.1844866    
          51           2  0.1935929    
          52           2  0.2028076    
          53           2  0.2121140    
          54           2  0.2214947    
          55           2  0.2309317    
          56           2  0.2404064    
          57           2  0.2499000    
          58           2  0.2550000    
          59           2  0.2550000    
          60           2  0.2550000    
          61           2  0.2550000    
          62           2  0.2550000    
          63           2  0.2550000    
          64           2  0.2550000    
          65           2  0.2550000    
          66           2  0.2550000    
          67           2  0.2550000    
          68           2  0.2550000    
          69           2  0.2550000    
          70           2  0.2550000    
          71           2  0.2550000    
          72           2  0.2550000    
          73           2  0.2550000    
          74           2  0.2550000    
           1           3 -0.3586957    
           2           3 -0.3423913    
           3           3 -0.3260870    
           4           3 -0.3097826    
           5           3 -0.2934783    
           6           3 -0.2771739    
           7           3 -0.2608696    
           8           3 -0.2445652    
           9           3 -0.2282609    
          10           3 -0.2119565    
          11           3 -0.1956522    
          12           3 -0.1793478    
          13           3 -0.1630435    
          14           3 -0.1467391    
          15           3 -0.1304348    
          16           3 -0.1141304    
          17           3 -9.7826086E-02
          18           3 -8.1521742E-02
          19           3 -6.5217391E-02
          20           3 -4.8913043E-02
          21           3 -3.2608695E-02
          22           3 -1.6304348E-02
          23           3  0.0000000E+00
          24           3  7.5233835E-03
          25           3  1.1353130E-02
          26           3  1.5263930E-02
          27           3  1.9281782E-02
          28           3  2.3431825E-02
          29           3  2.7738128E-02
          30           3  3.2223511E-02
          31           3  3.6909346E-02
          32           3  4.1815393E-02
          33           3  4.6959639E-02
          34           3  5.2358150E-02
          35           3  5.8024950E-02
          36           3  6.3971899E-02
          37           3  7.0208602E-02
          38           3  7.6742336E-02
          39           3  8.3577976E-02
          40           3  9.0717971E-02
          41           3  9.8162331E-02
          42           3  0.1059086    
          43           3  0.1139519    
          44           3  0.1222850    
          45           3  0.1308981    
          46           3  0.1397796    
          47           3  0.1489154    
          48           3  0.1582894    
          49           3  0.1678835    
          50           3  0.1776781    
          51           3  0.1876518    
          52           3  0.1977818    
          53           3  0.2080439    
          54           3  0.2184131    
          55           3  0.2288634    
          56           3  0.2393681    
          57           3  0.2499000    
          58           3  0.2550000    
          59           3  0.2550000    
          60           3  0.2550000    
          61           3  0.2550000    
          62           3  0.2550000    
          63           3  0.2550000    
          64           3  0.2550000    
          65           3  0.2550000    
          66           3  0.2550000    
          67           3  0.2550000    
          68           3  0.2550000    
          69           3  0.2550000    
          70           3  0.2550000    
          71           3  0.2550000    
          72           3  0.2550000    
          73           3  0.2550000    
          74           3  0.2550000    
           1           4 -0.3586957    
           2           4 -0.3423913    
           3           4 -0.3260870    
           4           4 -0.3097826    
           5           4 -0.2934783    
           6           4 -0.2771739    
           7           4 -0.2608696    
           8           4 -0.2445652    
           9           4 -0.2282609    
          10           4 -0.2119565    
          11           4 -0.1956522    
          12           4 -0.1793478    
          13           4 -0.1630435    
          14           4 -0.1467391    
          15           4 -0.1304348    
          16           4 -0.1141304    
          17           4 -9.7826086E-02
          18           4 -8.1521742E-02
          19           4 -6.5217391E-02
          20           4 -4.8913043E-02
          21           4 -3.2608695E-02
          22           4 -1.6304348E-02
          23           4  0.0000000E+00
          24           4  5.7716523E-03
          25           4  8.7431781E-03
          26           4  1.1816770E-02
          27           4  1.5025169E-02
          28           4  1.8400028E-02
          29           4  2.1971665E-02
          30           4  2.5768809E-02
          31           4  2.9818373E-02
          32           4  3.4145240E-02
          33           4  3.8772061E-02
          34           4  4.3719072E-02
          35           4  4.9003929E-02
          36           4  5.4641563E-02
          37           4  6.0644075E-02
          38           4  6.7020625E-02
          39           4  7.3777355E-02
          40           4  8.0917358E-02
          41           4  8.8440627E-02
          42           4  9.6344084E-02
          43           4  0.1046216    
          44           4  0.1132639    
          45           4  0.1222591    
          46           4  0.1315921    
          47           4  0.1412452    
          48           4  0.1511984    
          49           4  0.1614288    
          50           4  0.1719117    
          51           4  0.1826200    
          52           4  0.1935252    
          53           4  0.2045968    
          54           4  0.2158032    
          55           4  0.2271117    
          56           4  0.2384886    
          57           4  0.2499000    
          58           4  0.2550000    
          59           4  0.2550000    
          60           4  0.2550000    
          61           4  0.2550000    
          62           4  0.2550000    
          63           4  0.2550000    
          64           4  0.2550000    
          65           4  0.2550000    
          66           4  0.2550000    
          67           4  0.2550000    
          68           4  0.2550000    
          69           4  0.2550000    
          70           4  0.2550000    
          71           4  0.2550000    
          72           4  0.2550000    
          73           4  0.2550000    
          74           4  0.2550000    
           1           5 -0.3586957    
           2           5 -0.3423913    
           3           5 -0.3260870    
           4           5 -0.3097826    
           5           5 -0.2934783    
           6           5 -0.2771739    
           7           5 -0.2608696    
           8           5 -0.2445652    
           9           5 -0.2282609    
          10           5 -0.2119565    
          11           5 -0.1956522    
          12           5 -0.1793478    
          13           5 -0.1630435    
          14           5 -0.1467391    
          15           5 -0.1304348    
          16           5 -0.1141304    
          17           5 -9.7826086E-02
          18           5 -8.1521742E-02
          19           5 -6.5217391E-02
          20           5 -4.8913043E-02
          21           5 -3.2608695E-02
          22           5 -1.6304348E-02
          23           5  0.0000000E+00
          24           5  4.4185445E-03
          25           5  6.7271455E-03
          26           5  9.1540441E-03
          27           5  1.1737189E-02
          28           5  1.4513268E-02
          29           5  1.7517418E-02
          30           5  2.0782936E-02
          31           5  2.4341019E-02
          32           5  2.8220506E-02
          33           5  3.2447651E-02
          34           5  3.7045904E-02
          35           5  4.2035729E-02
          36           5  4.7434438E-02
          37           5  5.3256053E-02
          38           5  5.9511188E-02
          39           5  6.6206969E-02
          40           5  7.3346972E-02
          41           5  8.0931194E-02
          42           5  8.8956058E-02
          43           5  9.7414441E-02
          44           5  0.1062957    
          45           5  0.1155859    
          46           5  0.1252677    
          47           5  0.1353205    
          48           5  0.1457210    
          49           5  0.1564429    
          50           5  0.1674574    
          51           5  0.1787333    
          52           5  0.1902372    
          53           5  0.2019341    
          54           5  0.2137872    
          55           5  0.2257586    
          56           5  0.2378094    
          57           5  0.2499000    
          58           5  0.2550000    
          59           5  0.2550000    
          60           5  0.2550000    
          61           5  0.2550000    
          62           5  0.2550000    
          63           5  0.2550000    
          64           5  0.2550000    
          65           5  0.2550000    
          66           5  0.2550000    
          67           5  0.2550000    
          68           5  0.2550000    
          69           5  0.2550000    
          70           5  0.2550000    
          71           5  0.2550000    
          72           5  0.2550000    
          73           5  0.2550000    
          74           5  0.2550000    
           1           6 -0.3586957    
           2           6 -0.3423913    
           3           6 -0.3260870    
           4           6 -0.3097826    
           5           6 -0.2934783    
           6           6 -0.2771739    
           7           6 -0.2608696    
           8           6 -0.2445652    
           9           6 -0.2282609    
          10           6 -0.2119565    
          11           6 -0.1956522    
          12           6 -0.1793478    
          13           6 -0.1630435    
          14           6 -0.1467391    
          15           6 -0.1304348    
          16           6 -0.1141304    
          17           6 -9.7826086E-02
          18           6 -8.1521742E-02
          19           6 -6.5217391E-02
          20           6 -4.8913043E-02
          21           6 -3.2608695E-02
          22           6 -1.6304348E-02
          23           6  0.0000000E+00
          24           6  3.5274532E-03
          25           6  5.3994837E-03
          26           6  7.4005020E-03
          27           6  9.5718838E-03
          28           6  1.1953634E-02
          29           6  1.4584064E-02
          30           6  1.7499480E-02
          31           6  2.0733899E-02
          32           6  2.4318762E-02
          33           6  2.8282698E-02
          34           6  3.2651275E-02
          35           6  3.7446808E-02
          36           6  4.2688176E-02
          37           6  4.8390660E-02
          38           6  5.4565836E-02
          39           6  6.1221477E-02
          40           6  6.8361476E-02
          41           6  7.5985841E-02
          42           6  8.4090665E-02
          43           6  9.2668176E-02
          44           6  0.1017068    
          45           6  0.1111913    
          46           6  0.1211027    
          47           6  0.1314188    
          48           6  0.1421139    
          49           6  0.1531595    
          50           6  0.1645241    
          51           6  0.1761736    
          52           6  0.1880719    
          53           6  0.2001805    
          54           6  0.2124595    
          55           6  0.2248675    
          56           6  0.2373620    
          57           6  0.2499000    
          58           6  0.2550000    
          59           6  0.2550000    
          60           6  0.2550000    
          61           6  0.2550000    
          62           6  0.2550000    
          63           6  0.2550000    
          64           6  0.2550000    
          65           6  0.2550000    
          66           6  0.2550000    
          67           6  0.2550000    
          68           6  0.2550000    
          69           6  0.2550000    
          70           6  0.2550000    
          71           6  0.2550000    
          72           6  0.2550000    
          73           6  0.2550000    
          74           6  0.2550000    
           1           7 -0.3586957    
           2           7 -0.3423913    
           3           7 -0.3260870    
           4           7 -0.3097826    
           5           7 -0.2934783    
           6           7 -0.2771739    
           7           7 -0.2608696    
           8           7 -0.2445652    
           9           7 -0.2282609    
          10           7 -0.2119565    
          11           7 -0.1956522    
          12           7 -0.1793478    
          13           7 -0.1630435    
          14           7 -0.1467391    
          15           7 -0.1304348    
          16           7 -0.1141304    
          17           7 -9.7826086E-02
          18           7 -8.1521742E-02
          19           7 -6.5217391E-02
          20           7 -4.8913043E-02
          21           7 -3.2608695E-02
          22           7 -1.6304348E-02
          23           7  0.0000000E+00
          24           7  3.1401271E-03
          25           7  4.8223957E-03
          26           7  6.6382987E-03
          27           7  8.6307023E-03
          28           7  1.0841052E-02
          29           7  1.3309038E-02
          30           7  1.6072277E-02
          31           7  1.9166010E-02
          32           7  2.2622811E-02
          33           7  2.6472339E-02
          34           7  3.0741084E-02
          35           7  3.5452165E-02
          36           7  4.0625140E-02
          37           7  4.6275843E-02
          38           7  5.2416265E-02
          39           7  5.9054457E-02
          40           7  6.6194460E-02
          41           7  7.3836267E-02
          42           7  8.1975847E-02
          43           7  9.0605147E-02
          44           7  9.9712171E-02
          45           7  0.1092811    
          46           7  0.1192923    
          47           7  0.1297228    
          48           7  0.1405460    
          49           7  0.1517323    
          50           7  0.1632490    
          51           7  0.1750611    
          52           7  0.1871307    
          53           7  0.1994183    
          54           7  0.2118824    
          55           7  0.2244801    
          56           7  0.2371676    
          57           7  0.2499000    
          58           7  0.2550000    
          59           7  0.2550000    
          60           7  0.2550000    
          61           7  0.2550000    
          62           7  0.2550000    
          63           7  0.2550000    
          64           7  0.2550000    
          65           7  0.2550000    
          66           7  0.2550000    
          67           7  0.2550000    
          68           7  0.2550000    
          69           7  0.2550000    
          70           7  0.2550000    
          71           7  0.2550000    
          72           7  0.2550000    
          73           7  0.2550000    
          74           7  0.2550000    
           1           8 -0.3586957    
           2           8 -0.3423913    
           3           8 -0.3260870    
           4           8 -0.3097826    
           5           8 -0.2934783    
           6           8 -0.2771739    
           7           8 -0.2608696    
           8           8 -0.2445652    
           9           8 -0.2282609    
          10           8 -0.2119565    
          11           8 -0.1956522    
          12           8 -0.1793478    
          13           8 -0.1630435    
          14           8 -0.1467391    
          15           8 -0.1304348    
          16           8 -0.1141304    
          17           8 -9.7826086E-02
          18           8 -8.1521742E-02
          19           8 -6.5217391E-02
          20           8 -4.8913043E-02
          21           8 -3.2608695E-02
          22           8 -1.6304348E-02
          23           8  0.0000000E+00
          24           8  3.2747134E-03
          25           8  5.0229197E-03
          26           8  6.9031459E-03
          27           8  8.9577399E-03
          28           8  1.1227648E-02
          29           8  1.3752079E-02
          30           8  1.6568197E-02
          31           8  1.9710813E-02
          32           8  2.3212114E-02
          33           8  2.7101396E-02
          34           8  3.1404831E-02
          35           8  3.6145255E-02
          36           8  4.1341994E-02
          37           8  4.7010690E-02
          38           8  5.3163189E-02
          39           8  5.9807446E-02
          40           8  6.6947445E-02
          41           8  7.4583195E-02
          42           8  8.2710691E-02
          43           8  9.1321997E-02
          44           8  0.1004053    
          45           8  0.1099448    
          46           8  0.1199214    
          47           8  0.1303121    
          48           8  0.1410908    
          49           8  0.1522282    
          50           8  0.1636921    
          51           8  0.1754477    
          52           8  0.1874578    
          53           8  0.1996832    
          54           8  0.2120829    
          55           8  0.2246147    
          56           8  0.2372351    
          57           8  0.2499000    
          58           8  0.2550000    
          59           8  0.2550000    
          60           8  0.2550000    
          61           8  0.2550000    
          62           8  0.2550000    
          63           8  0.2550000    
          64           8  0.2550000    
          65           8  0.2550000    
          66           8  0.2550000    
          67           8  0.2550000    
          68           8  0.2550000    
          69           8  0.2550000    
          70           8  0.2550000    
          71           8  0.2550000    
          72           8  0.2550000    
          73           8  0.2550000    
          74           8  0.2550000    
           1           9 -0.3586957    
           2           9 -0.3423913    
           3           9 -0.3260870    
           4           9 -0.3097826    
           5           9 -0.2934783    
           6           9 -0.2771739    
           7           9 -0.2608696    
           8           9 -0.2445652    
           9           9 -0.2282609    
          10           9 -0.2119565    
          11           9 -0.1956522    
          12           9 -0.1793478    
          13           9 -0.1630435    
          14           9 -0.1467391    
          15           9 -0.1304348    
          16           9 -0.1141304    
          17           9 -9.7826086E-02
          18           9 -8.1521742E-02
          19           9 -6.5217391E-02
          20           9 -4.8913043E-02
          21           9 -3.2608695E-02
          22           9 -1.6304348E-02
          23           9  0.0000000E+00
          24           9  3.9249058E-03
          25           9  5.9916596E-03
          26           9  8.1826327E-03
          27           9  1.0537673E-02
          28           9  1.3095305E-02
          29           9  1.5892426E-02
          30           9  1.8963998E-02
          31           9  2.2342779E-02
          32           9  2.6059054E-02
          33           9  3.0140389E-02
          34           9  3.4611408E-02
          35           9  3.9493602E-02
          36           9  4.4805147E-02
          37           9  5.0560769E-02
          38           9  5.6771610E-02
          39           9  6.3445151E-02
          40           9  7.0585154E-02
          41           9  7.8191608E-02
          42           9  8.6260773E-02
          43           9  9.4785154E-02
          44           9  0.1037536    
          45           9  0.1131514    
          46           9  0.1229604    
          47           9  0.1331591    
          48           9  0.1437228    
          49           9  0.1546240    
          50           9  0.1658324    
          51           9  0.1773153    
          52           9  0.1890377    
          53           9  0.2009626    
          54           9  0.2130517    
          55           9  0.2252649    
          56           9  0.2375615    
          57           9  0.2499000    
          58           9  0.2550000    
          59           9  0.2550000    
          60           9  0.2550000    
          61           9  0.2550000    
          62           9  0.2550000    
          63           9  0.2550000    
          64           9  0.2550000    
          65           9  0.2550000    
          66           9  0.2550000    
          67           9  0.2550000    
          68           9  0.2550000    
          69           9  0.2550000    
          70           9  0.2550000    
          71           9  0.2550000    
          72           9  0.2550000    
          73           9  0.2550000    
          74           9  0.2550000    
           1          10 -0.3586957    
           2          10 -0.3423913    
           3          10 -0.3260870    
           4          10 -0.3097826    
           5          10 -0.2934783    
           6          10 -0.2771739    
           7          10 -0.2608696    
           8          10 -0.2445652    
           9          10 -0.2282609    
          10          10 -0.2119565    
          11          10 -0.1956522    
          12          10 -0.1793478    
          13          10 -0.1630435    
          14          10 -0.1467391    
          15          10 -0.1304348    
          16          10 -0.1141304    
          17          10 -9.7826086E-02
          18          10 -8.1521742E-02
          19          10 -6.5217391E-02
          20          10 -4.8913043E-02
          21          10 -3.2608695E-02
          22          10 -1.6304348E-02
          23          10  0.0000000E+00
          24          10  5.0602430E-03
          25          10  7.6832292E-03
          26          10  1.0416816E-02
          27          10  1.3296481E-02
          28          10  1.6356526E-02
          29          10  1.9629801E-02
          30          10  2.3147438E-02
          31          10  2.6938600E-02
          32          10  3.1030254E-02
          33          10  3.5446942E-02
          34          10  4.0210590E-02
          35          10  4.5340329E-02
          36          10  5.0852347E-02
          37          10  5.6759752E-02
          38          10  6.3072465E-02
          39          10  6.9797151E-02
          40          10  7.6937154E-02
          41          10  8.4492467E-02
          42          10  9.2459753E-02
          43          10  0.1008324    
          44          10  0.1096003    
          45          10  0.1187506    
          46          10  0.1282669    
          47          10  0.1381303    
          48          10  0.1483186    
          49          10  0.1588074    
          50          10  0.1695698    
          51          10  0.1805765    
          52          10  0.1917965    
          53          10  0.2031968    
          54          10  0.2147432    
          55          10  0.2264003    
          56          10  0.2381315    
          57          10  0.2499000    
          58          10  0.2550000    
          59          10  0.2550000    
          60          10  0.2550000    
          61          10  0.2550000    
          62          10  0.2550000    